# vtk DataFile Version 3.0
geoai-simkit result export support_2
ASCII
DATASET UNSTRUCTURED_GRID
POINTS 24 float
-18 -8 -16
18 -8 -16
18 8 -16
-18 8 -16
-18 -8 -8
18 -8 -8
18 8 -8
-18 8 -8
-18 -8 0
18 -8 0
18 8 0
-18 8 0
-4 -3 -4
4 -3 -4
4 3 -4
-4 3 -4
-4 -3 0
4 -3 0
4 3 0
-4 3 0
-4 -3 -8
4 -3 -8
4 3 -8
-4 3 -8
CELLS 4 36
8 0 1 2 3 4 5 6 7
8 4 5 6 7 8 9 10 11
8 12 13 14 15 16 17 18 19
8 20 21 22 23 12 13 14 15
CELL_TYPES 4
12
12
12
12
CELL_DATA 4
SCALARS phase_active int 1
LOOKUP_TABLE default
1
1
0
0
