# vtk DataFile Version 3.0
geoai-simkit result export support_2
ASCII
DATASET UNSTRUCTURED_GRID
POINTS 32 float
-18 -8 -16
18 -8 -16
18 8 -16
-18 8 -16
-18 -8 -8
18 -8 -8
18 8 -8
-18 8 -8
-18 -8 -8
18 -8 -8
18 8 -8
-18 8 -8
-18 -8 0
18 -8 0
18 8 0
-18 8 0
-4 -3 -4
4 -3 -4
4 3 -4
-4 3 -4
-4 -3 0
4 -3 0
4 3 0
-4 3 0
-4 -3 -8
4 -3 -8
4 3 -8
-4 3 -8
-4 -3 -4
4 -3 -4
4 3 -4
-4 3 -4
CELLS 4 36
8 0 1 2 3 4 5 6 7
8 8 9 10 11 12 13 14 15
8 16 17 18 19 20 21 22 23
8 24 25 26 27 28 29 30 31
CELL_TYPES 4
7
7
7
7
CELL_DATA 4
SCALARS phase_active int 1
LOOKUP_TABLE default
1
1
0
0
