# vtk DataFile Version 3.0
geoai-simkit result export initial
ASCII
DATASET UNSTRUCTURED_GRID
POINTS 24 float
-18 -8 -16
18 -8 -16
18 8 -16
-18 8 -16
-18 -8 -8
18 -8 -8
18 8 -8
-18 8 -8
-18 -8 0
18 -8 0
18 8 0
-18 8 0
-4 -3 -4
4 -3 -4
4 3 -4
-4 3 -4
-4 -3 0
4 -3 0
4 3 0
-4 3 0
-4 -3 -8
4 -3 -8
4 3 -8
-4 3 -8
CELLS 20 100
4 0 1 3 4
4 1 2 3 6
4 1 3 4 6
4 1 4 5 6
4 3 4 6 7
4 4 5 7 8
4 5 6 7 10
4 5 7 8 10
4 5 8 9 10
4 7 8 10 11
4 12 13 15 16
4 13 14 15 18
4 13 15 16 18
4 13 16 17 18
4 15 16 18 19
4 20 21 23 12
4 21 22 23 14
4 21 23 12 14
4 21 12 13 14
4 23 12 14 15
CELL_TYPES 20
10
10
10
10
10
10
10
10
10
10
10
10
10
10
10
10
10
10
10
10
CELL_DATA 20
SCALARS phase_active int 1
LOOKUP_TABLE default
1
1
1
1
1
1
1
1
1
1
1
1
1
1
1
1
1
1
1
1
